H2O UB3LYP/6-311++G** OPT                                               
Freq      UB3LYP                                                      6-311++G(d,p)       
Number of atoms                            I                3
Info1-9                                    I   N=           9
          10           4           0           0           0         101
           6          18        -502
Charge                                     I                0
Multiplicity                               I                1
Number of electrons                        I               10
Number of alpha electrons                  I                5
Number of beta electrons                   I                5
Number of basis functions                  I               36
Number of independent functions            I               36
Number of point charges in /Mol/           I                0
Number of translation vectors              I                0
Atomic numbers                             I   N=           3
           8           1           1
Nuclear charges                            R   N=           3
  8.00000000E+00  1.00000000E+00  1.00000000E+00
Current cartesian coordinates              R   N=           9
  7.64963322E-14 -1.85397511E-02  0.00000000E+00  1.44292728E+00 -1.12456580E+00
  0.00000000E+00 -1.44292728E+00 -1.12456580E+00  0.00000000E+00
Force Field                                I                0
Int Atom Types                             I   N=           3
           0           0           0
MM charges                                 R   N=           3
  0.00000000E+00  0.00000000E+00  0.00000000E+00
Integer atomic weights                     I   N=           3
          16           1           1
Real atomic weights                        R   N=           3
  1.59949146E+01  1.00782504E+00  1.00782504E+00
Atom fragment info                         I   N=           3
           0           0           0
Atom residue num                           I   N=           3
           0           0           0
Nuclear spins                              I   N=           3
           0           1           1
Nuclear ZEff                               R   N=           3
 -5.60000000E+00 -1.00000000E+00 -1.00000000E+00
Nuclear QMom                               R   N=           3
  0.00000000E+00  0.00000000E+00  0.00000000E+00
Nuclear GFac                               R   N=           3
  0.00000000E+00  2.79284600E+00  2.79284600E+00
MicOpt                                     I   N=           3
          -1          -1          -1
Number of contracted shells                I               16
Number of primitive shells                 I               27
Pure/Cartesian d shells                    I                0
Pure/Cartesian f shells                    I                0
Highest angular momentum                   I                2
Largest degree of contraction              I                6
Shell types                                I   N=          16
           0          -1          -1          -1          -1          -2
           0           0           0           0           1           0
           0           0           0           1
Number of primitives per shell             I   N=          16
           6           3           1           1           1           1
           3           1           1           1           1           3
           1           1           1           1
Shell to atom map                          I   N=          16
           1           1           1           1           1           1
           2           2           2           2           2           3
           3           3           3           3
Primitive exponents                        R   N=          27
  8.58850000E+03  1.29723000E+03  2.99296000E+02  8.73771000E+01  2.56789000E+01
  3.74004000E+00  4.21175000E+01  9.62837000E+00  2.85332000E+00  9.05661000E-01
  2.55611000E-01  8.45000000E-02  1.29200000E+00  3.38650000E+01  5.09479000E+00
  1.15879000E+00  3.25840000E-01  1.02741000E-01  3.60000000E-02  7.50000000E-01
  3.38650000E+01  5.09479000E+00  1.15879000E+00  3.25840000E-01  1.02741000E-01
  3.60000000E-02  7.50000000E-01
Contraction coefficients                   R   N=          27
  1.89515008E-03  1.43859006E-02  7.07320031E-02  2.40001011E-01  5.94797026E-01
  2.80802012E-01  1.13889012E-01  9.20811101E-01 -3.27447036E-03  1.00000000E+00
  1.00000000E+00  1.00000000E+00  1.00000000E+00  2.54938145E-02  1.90373109E-01
  8.52161486E-01  1.00000000E+00  1.00000000E+00  1.00000000E+00  1.00000000E+00
  2.54938145E-02  1.90373109E-01  8.52161486E-01  1.00000000E+00  1.00000000E+00
  1.00000000E+00  1.00000000E+00
P(S=P) Contraction coefficients            R   N=          27
  0.00000000E+00  0.00000000E+00  0.00000000E+00  0.00000000E+00  0.00000000E+00
  0.00000000E+00  3.65113974E-02  2.37152983E-01  8.19701941E-01  1.00000000E+00
  1.00000000E+00  1.00000000E+00  0.00000000E+00  0.00000000E+00  0.00000000E+00
  0.00000000E+00  0.00000000E+00  0.00000000E+00  0.00000000E+00  0.00000000E+00
  0.00000000E+00  0.00000000E+00  0.00000000E+00  0.00000000E+00  0.00000000E+00
  0.00000000E+00  0.00000000E+00
Coordinates of each shell                  R   N=          48
  7.64963322E-14 -1.85397511E-02  0.00000000E+00  7.64963322E-14 -1.85397511E-02
  0.00000000E+00  7.64963322E-14 -1.85397511E-02  0.00000000E+00  7.64963322E-14
 -1.85397511E-02  0.00000000E+00  7.64963322E-14 -1.85397511E-02  0.00000000E+00
  7.64963322E-14 -1.85397511E-02  0.00000000E+00  1.44292728E+00 -1.12456580E+00
  0.00000000E+00  1.44292728E+00 -1.12456580E+00  0.00000000E+00  1.44292728E+00
 -1.12456580E+00  0.00000000E+00  1.44292728E+00 -1.12456580E+00  0.00000000E+00
  1.44292728E+00 -1.12456580E+00  0.00000000E+00 -1.44292728E+00 -1.12456580E+00
  0.00000000E+00 -1.44292728E+00 -1.12456580E+00  0.00000000E+00 -1.44292728E+00
 -1.12456580E+00  0.00000000E+00 -1.44292728E+00 -1.12456580E+00  0.00000000E+00
 -1.44292728E+00 -1.12456580E+00  0.00000000E+00
Constraint Structure                       R   N=           9
  7.64963322E-14 -1.85397511E-02  0.00000000E+00  1.44292728E+00 -1.12456580E+00
  0.00000000E+00 -1.44292728E+00 -1.12456580E+00  0.00000000E+00
Num ILSW                                   I              100
ILSW                                       I   N=         100
           1           0           0           0           2           0
           0           0           0           0         402          -1
           5           0           0           0           2           0
           0           0           0           0           1           0
           1           1           0           0           0           0
           0           0      100000           0          -1           0
           0           0           0           0           0           0
           0           0           0           1           0           0
           0           0           1           0           0           0
           0           0           4          40           0           0
           0           0           5           0           0           0
           0           0           0           0           0           0
           0           0           0           0           0           0
           0           0           0           0           0           0
           0           0           0           0           0           0
           0           0           0           0           0           0
           0           0           0           0
Num RLSW                                   I               40
RLSW                                       R   N=          40
  8.00000000E-01  7.20000000E-01  1.00000000E+00  8.10000000E-01  2.00000000E-01
  0.00000000E+00  0.00000000E+00  1.00000000E+00  0.00000000E+00  0.00000000E+00
  0.00000000E+00  0.00000000E+00  1.00000000E+00  0.00000000E+00  0.00000000E+00
  0.00000000E+00  0.00000000E+00  1.00000000E+00  0.00000000E+00  0.00000000E+00
  0.00000000E+00  0.00000000E+00  1.00000000E+00  0.00000000E+00  0.00000000E+00
  0.00000000E+00  0.00000000E+00  1.00000000E+00  0.00000000E+00  0.00000000E+00
  0.00000000E+00  0.00000000E+00  1.00000000E+00  0.00000000E+00  0.00000000E+00
  0.00000000E+00  0.00000000E+00  0.00000000E+00  1.00000000E+00  1.00000000E+00
MxBond                                     I                2
NBond                                      I   N=           3
           2           1           1
IBond                                      I   N=           6
           2           3           1           0           1           0
RBond                                      R   N=           6
  1.00000000E+00  1.00000000E+00  1.00000000E+00  0.00000000E+00  1.00000000E+00
  0.00000000E+00
Virial Ratio                               R      2.003062339126696E+00
SCF Energy                                 R     -7.645853198982874E+01
Total Energy                               R     -7.645853198982874E+01
S**2                                       R     -3.552713678800501E-15
S**2 after annihilation                    R      1.154631945610160E-14
RMS Force                                  R      2.258270039755887E-08
RMS Density                                R      6.442644668544466E-10
External E-field                           R   N=          35
  0.00000000E+00  0.00000000E+00  0.00000000E+00  0.00000000E+00  0.00000000E+00
  0.00000000E+00  0.00000000E+00  0.00000000E+00  0.00000000E+00  0.00000000E+00
  0.00000000E+00  0.00000000E+00  0.00000000E+00  0.00000000E+00  0.00000000E+00
  0.00000000E+00  0.00000000E+00  0.00000000E+00  0.00000000E+00  0.00000000E+00
  0.00000000E+00  0.00000000E+00  0.00000000E+00  0.00000000E+00  0.00000000E+00
  0.00000000E+00  0.00000000E+00  0.00000000E+00  0.00000000E+00  0.00000000E+00
  0.00000000E+00  0.00000000E+00  0.00000000E+00  0.00000000E+00  0.00000000E+00
IOpCl                                      I                1
IROHF                                      I                0
Alpha Orbital Energies                     R   N=          36
 -1.91333359E+01 -1.02322978E+00 -5.43207929E-01 -3.96778568E-01 -3.22952966E-01
 -2.33039206E-02  2.92182667E-02  1.38184424E-01  1.51231743E-01  1.53596140E-01
  1.53623037E-01  2.20308641E-01  2.25217171E-01  4.98299584E-01  5.44547341E-01
  9.54426438E-01  9.92937861E-01  1.00326999E+00  1.23066265E+00  1.25028647E+00
  1.35216126E+00  1.45955734E+00  1.65819800E+00  1.98063521E+00  2.11739455E+00
  2.39586808E+00  2.56533861E+00  3.08719037E+00  3.13606992E+00  3.30349460E+00
  3.66843871E+00  3.88279463E+00  4.92139507E+00  5.29874422E+00  5.61276916E+00
  4.98537208E+01
Beta Orbital Energies                      R   N=          36
 -1.91333359E+01 -1.02322978E+00 -5.43207929E-01 -3.96778568E-01 -3.22952966E-01
 -2.33039206E-02  2.92182667E-02  1.38184424E-01  1.51231743E-01  1.53596140E-01
  1.53623037E-01  2.20308641E-01  2.25217171E-01  4.98299584E-01  5.44547341E-01
  9.54426438E-01  9.92937861E-01  1.00326999E+00  1.23066265E+00  1.25028647E+00
  1.35216126E+00  1.45955734E+00  1.65819800E+00  1.98063521E+00  2.11739455E+00
  2.39586808E+00  2.56533861E+00  3.08719037E+00  3.13606992E+00  3.30349460E+00
  3.66843871E+00  3.88279463E+00  4.92139507E+00  5.29874422E+00  5.61276916E+00
  4.98537208E+01
Alpha MO coefficients                      R   N=        1296
  5.51324589E-01  4.69791765E-01 -2.04088382E-16 -1.31101477E-03  5.38646771E-17
  1.28962395E-02  1.67010785E-15 -3.48140482E-04 -5.85922171E-18 -5.14747575E-03
  2.45262306E-15 -3.20305728E-04  4.72651794E-17  4.85686266E-03  6.30383140E-15
 -6.21455467E-04 -6.03392766E-17 -3.41489431E-04  1.99264426E-18 -5.19959573E-18
  1.51539560E-04 -1.16225647E-15 -5.91540953E-05 -4.88143796E-04 -9.71241598E-04
 -5.78559135E-04  8.01033201E-04 -6.12989364E-04 -5.37430523E-18 -5.91540953E-05
 -4.88143796E-04 -9.71241598E-04 -5.78559135E-04 -8.01033201E-04 -6.12989364E-04
 -1.92052106E-18 -1.16270828E-01 -1.86073789E-01  3.99902842E-15 -5.39833245E-02
  4.17746107E-16  5.41295338E-01  5.79422282E-14 -8.24178517E-02  3.41133217E-15
  3.59719753E-01 -2.34422882E-13 -2.83761250E-02 -6.79419612E-15 -9.32079900E-03
  4.66253545E-13  3.56159440E-05  1.08099477E-14 -9.57559687E-03  1.09622762E-16
 -3.16215033E-16  1.31354063E-03  5.94997323E-15  9.89958748E-02  8.40176562E-02
 -3.47540575E-04  6.00262164E-03 -2.29467435E-02  1.26568352E-02  4.04988935E-16
  9.89958748E-02  8.40176562E-02 -3.47540576E-04  6.00262165E-03  2.29467435E-02
  1.26568352E-02  5.51655074E-16  5.62455709E-15  7.59478102E-15  2.42148048E-01
 -1.76852093E-14 -9.26341518E-16  3.56652155E-14  3.46834119E-01 -1.67959129E-14
  3.16971493E-15 -3.85683862E-13  2.03912051E-01 -2.56107770E-14 -1.62834056E-14
  5.14101811E-13  1.53649858E-02  1.73261336E-14  2.57974259E-14  1.38945918E-16
  4.70176019E-16 -1.44111968E-17 -3.80200881E-16 -2.44273675E-02  1.53911085E-01
  2.05788552E-01  5.11864834E-02  8.83739122E-03 -1.44179355E-02  2.31859714E-02
  7.39266842E-16 -1.53911085E-01 -2.05788552E-01 -5.11864834E-02 -8.83739122E-03
 -1.44179355E-02 -2.31859714E-02  2.19529273E-16 -4.39839454E-02 -7.17952932E-02
  1.79403596E-14  2.61789351E-01  1.08949426E-15  2.18614865E-01 -1.93872749E-14
  3.72262076E-01  7.69570402E-16  3.21511417E-01  2.69183348E-13  2.83920416E-01
  4.00708034E-15  4.10046075E-02 -5.77248273E-13  7.69862223E-02 -4.60840106E-15
  9.69335210E-03  1.16383042E-16  1.36230274E-16  1.33671199E-02 -6.55677252E-15
 -8.79115691E-02 -1.42924766E-01 -3.50321975E-02 -1.36750852E-03  2.77627397E-02
  1.44270070E-02 -2.13344534E-16 -8.79115691E-02 -1.42924766E-01 -3.50321975E-02
 -1.36750852E-03 -2.77627397E-02  1.44270070E-02 -4.21052887E-16  1.51049979E-15
  4.46939248E-15  7.63347170E-15  2.20024655E-15  2.98482025E-01 -5.53621396E-14
 -7.24031846E-14  7.57353378E-16  4.32754835E-01  2.48312788E-13  3.75965591E-13
  1.90945074E-14  3.94903285E-01 -4.63297191E-13 -9.46304729E-13 -7.04795653E-15
  1.15760107E-01  1.37786141E-16  1.25488678E-15 -1.68856585E-02  8.33014957E-16
 -7.22821416E-15 -5.74921935E-14  2.46197143E-13 -9.05562453E-13  3.53823935E-12
  2.32942195E-14 -2.84291590E-14  3.43689613E-02  2.03858155E-14 -2.13999781E-14
  3.26527423E-13 -2.64951060E-12  1.01746358E-14  1.13048509E-14  3.43689613E-02
 -2.96246000E-02 -4.92058923E-02 -2.24697981E-11 -7.20826737E-02  5.80250301E-13
  1.67458686E-01 -4.83709775E-11 -1.05149025E-01  2.83862685E-13  2.75956319E-01
  4.60346158E-11 -1.57008971E-01  3.04919318E-12  8.35805123E-01 -3.61246920E-10
 -1.03839367E-01 -5.48285831E-12 -1.10182047E-03 -1.67377189E-16 -3.71377227E-14
 -4.51292309E-03 -1.47487813E-12 -1.80916511E-02 -9.64149426E-02 -3.77959771E-01
 -5.81304470E-01 -1.89539317E-02  1.06907059E-02 -7.42367894E-14 -1.80916511E-02
 -9.64149427E-02 -3.77959771E-01 -5.81304472E-01  1.89539317E-02  1.06907060E-02
 -7.35231637E-14  2.69169090E-11  4.32870508E-11 -8.55734887E-02  6.61745661E-11
 -2.87379745E-12 -1.15711437E-10 -1.29669063E-01  9.99128441E-11 -1.79608188E-12
 -5.09154589E-10 -1.13527785E-01  1.29389573E-10 -1.41821949E-11 -4.22734784E-10
 -4.68272904E-01  1.92135547E-10  2.73556881E-11  2.20095782E-13 -2.31272267E-17
  1.76651925E-13  4.09656860E-12 -6.34167565E-04  2.20809093E-03  3.81653284E-02
  3.94662702E-01  2.05951013E+00  1.52317202E-02 -1.55295609E-02  3.54011200E-13
 -2.20809085E-03 -3.81653284E-02 -3.94662700E-01 -2.05951013E+00  1.52317202E-02
  1.55295609E-02  3.53343144E-13  2.57896178E-02  4.15051923E-02  2.49241782E-10
  1.32849465E-01  1.09040789E-11 -1.06630475E-01  3.10238043E-10  1.77946978E-01
  1.09647424E-11 -6.25972883E-01  7.73617058E-10  3.83162842E-01  4.21553237E-11
 -1.58381391E+00  1.31307767E-09  2.97148456E-01 -9.77600999E-11 -3.15070702E-03
 -1.59872979E-16 -6.11521948E-13  1.04821466E-02  1.75323244E-11  6.73577233E-02
  5.46544308E-02  2.03720837E+00 -8.22507331E-01  1.78512333E-02 -5.09321096E-03
 -1.07590005E-12  6.73577235E-02  5.46544310E-02  2.03720838E+00 -8.22507335E-01
 -1.78512333E-02 -5.09321104E-03 -1.07555165E-12 -2.23384972E-12 -3.66574776E-12
  8.77518695E-11  2.00221416E-11 -1.39993555E-01  1.24663688E-11  1.13653552E-10
  2.14039849E-11 -1.47905858E-01  1.44571401E-11  2.43638449E-10  8.44157942E-11
 -5.19654012E-01  1.88399802E-10  1.01886700E-09 -2.71404367E-10  1.23936732E+00
  1.51566733E-12 -1.34083330E-15  7.75822233E-03  8.00480345E-13  1.24334059E-11
 -5.98381389E-11 -4.02484216E-11 -2.07793438E-09  8.51089160E-10 -9.11784179E-12
  1.84066455E-11  1.32922834E-02  5.66871536E-11  6.06141787E-11  1.82611346E-09
 -8.95821192E-10 -4.66036193E-12 -2.19162106E-11  1.32922834E-02 -2.76922543E-02
 -4.52370058E-02 -3.82105310E-08  6.66902146E-02  2.01928731E-11  1.41483046E-01
 -5.00407761E-08  5.40006456E-02  2.15223206E-11  3.69026780E-01 -1.02354515E-07
  3.71818113E-01  7.43821763E-11  2.62165111E+00 -5.13327577E-07 -2.16778995E+00
 -1.78338791E-10  1.35335533E-02  3.04328735E-16 -1.11662799E-12 -7.98197158E-04
 -6.17134121E-09 -4.82276802E-02  3.21056753E-02 -2.16755701E+00  2.73804004E-01
 -2.66891609E-02 -8.94591044E-03 -1.90338570E-12 -4.82277347E-02  3.21056287E-02
 -2.16755885E+00  2.73804784E-01  2.66891668E-02 -8.94589140E-03 -1.90357438E-12
  8.53724646E-09  1.39459464E-08 -1.24277178E-01 -2.03022431E-08 -9.25021461E-11
 -4.36021807E-08 -1.62778276E-01 -1.63485639E-08 -9.86015638E-11 -1.14017377E-07
 -3.32729783E-01 -1.13668307E-07 -3.40711634E-10 -8.08939049E-07 -1.67264677E+00
  6.66721171E-07  8.16928504E-10 -4.16575382E-09 -1.51181414E-16  5.11474086E-12
  2.61764951E-10 -2.01051135E-02  8.86321671E-02  7.58063769E-02  2.99113598E+00
 -1.26768368E+00  9.67018199E-03 -3.10056690E-02  8.71851428E-12 -8.86321373E-02
 -7.58063964E-02 -2.99113464E+00  1.26768351E+00  9.67016553E-03  3.10056745E-02
  8.71874750E-12 -1.00633163E-10 -1.56684321E-10 -1.23582039E-01  1.09713218E-10
 -5.43248121E-12  2.35214620E-10 -1.43143872E-01 -4.20509888E-11 -7.25813367E-12
  4.53440622E-09 -5.72394506E-01  4.51548537E-10 -1.53785022E-11 -3.96500637E-08
  2.64081170E+00  1.10024205E-08  4.41647582E-11 -9.77538622E-11 -1.31812818E-16
  2.81300107E-13  5.34987556E-11  2.07198173E-02 -7.96058973E-03  1.08391322E-01
 -1.10112960E+00 -2.05385405E+00  1.06707605E-02  1.08396077E-02  3.99894884E-13
  7.96059000E-03 -1.08391323E-01  1.10112964E+00  2.05385405E+00  1.06707602E-02
 -1.08396077E-02  4.00037239E-13  2.65878157E-02  4.18141285E-02 -5.70763803E-10
 -1.42383669E-02 -1.24990516E-12 -7.43142209E-02 -6.71082511E-10  2.55742002E-02
 -1.69682812E-12 -1.09483130E+00 -2.59852170E-09 -7.38236462E-02 -3.45039542E-12
  8.67050628E+00  1.15676232E-08 -2.35367158E+00  1.00818875E-11  2.08569963E-02
 -2.78831645E-16  6.43382214E-14 -1.07796948E-02  8.80443172E-11 -2.14619518E-02
  1.00496668E-01 -3.93950798E+00 -5.04186055E-01 -2.78379818E-02  4.23103274E-03
  8.91962603E-14 -2.14619518E-02  1.00496667E-01 -3.93950797E+00 -5.04186036E-01
  2.78379819E-02  4.23103265E-03  9.03142916E-14  8.34417263E-12  1.43585598E-11
  1.42084117E-01  2.33033897E-11 -6.85255014E-13 -5.04164982E-11  2.45186402E-01
  4.42300164E-11 -1.65436091E-12 -2.09300267E-10  8.90234948E-01  1.38188102E-10
  7.93991220E-13  9.12607928E-10 -1.63489345E+00 -2.97256417E-10  2.70656765E-12
 -1.74474624E-12  3.34078006E-16  2.62673207E-14  3.15527073E-12  2.56697517E-02
 -1.24434522E-01 -1.57010166E+00  3.44819354E+00 -8.57950326E-01  2.05830406E-02
  1.34001123E-02 -2.43771172E-15  1.24434522E-01  1.57010166E+00 -3.44819354E+00
  8.57950326E-01  2.05830406E-02 -1.34001123E-02 -1.56909207E-15  3.41751834E-02
  5.85706374E-02 -1.23126186E-11  1.19180496E-01  3.55013060E-13 -1.87252812E-01
 -1.79760226E-11  2.26257850E-01  9.07593442E-13 -1.02359300E+00 -1.63593622E-10
  8.04743950E-01 -6.37014691E-13  4.33463061E+00  1.78633572E-10 -1.57294218E+00
 -1.12861550E-12 -1.32157968E-02 -1.38048018E-16 -1.26980447E-14  1.91896812E-02
 -5.15778070E-12  1.19616281E-01  1.85746959E+00 -3.81327450E+00  4.51549554E-01
 -4.55792456E-03  3.15365793E-02  3.58343890E-15  1.19616280E-01  1.85746959E+00
 -3.81327450E+00  4.51549553E-01  4.55792454E-03  3.15365793E-02  3.97980667E-15
  4.70019593E-04 -2.60481419E-03 -7.23568973E-12 -2.46974164E-01 -5.39774383E-13
  1.84234177E-01 -2.09651236E-11 -6.84342609E-01 -1.69105670E-12 -1.57645923E+00
  7.31460953E-11  2.10137837E+00  3.09427945E-12  2.09993435E+00 -4.58350020E-11
 -1.36709947E+00 -1.36934688E-12  7.47836561E-03 -3.88956529E-16  6.34067710E-15
  9.42752605E-03  6.45968953E-14  2.49436080E-02  9.91206245E-01 -1.14093996E+00
 -9.70856599E-02 -1.05018546E-01  2.21122617E-01  5.88218579E-14  2.49436080E-02
  9.91206245E-01 -1.14093996E+00 -9.70856599E-02  1.05018546E-01  2.21122617E-01
  6.14836635E-14 -7.84000981E-14 -1.49255484E-13  1.73023365E-11  5.89258484E-13
 -2.69930453E-01  8.52950685E-13  4.95102028E-11  1.68093481E-12 -8.43151796E-01
  6.26074238E-13 -1.73939775E-10 -3.66439138E-12  1.59501152E+00 -1.11426775E-12
  1.17721454E-10  1.56411903E-12 -7.87695028E-01 -4.73885627E-14 -4.40236104E-15
  1.84423571E-03  3.08663140E-14  1.71178488E-13  2.28382379E-12  5.62668799E-11
 -4.33881967E-11 -5.75145469E-11 -1.33054427E-11  7.07705683E-12  4.06118479E-02
 -1.89241880E-12 -5.68051205E-11  4.08385754E-11  6.04960877E-11 -1.36060076E-11
 -7.37962892E-12  4.06118479E-02 -2.14521289E-12 -4.17205120E-12 -2.38563377E-01
  1.05277673E-11 -1.95802739E-11  2.79229842E-11 -6.80548055E-01  3.05229215E-11
 -6.10793368E-11 -1.97527719E-11  2.39366809E+00 -5.30205665E-11  1.16495063E-10
  2.91629756E-11 -1.64898549E+00  7.26801042E-12 -5.90042714E-11 -1.14809442E-12
 -5.04368581E-16  1.02259352E-13  1.22148071E-12 -3.51006863E-03 -2.21209684E-02
 -7.59830841E-01  5.15673298E-01  9.51495497E-01  1.83831271E-01 -9.87847327E-02
  3.17132878E-12  2.21209684E-02  7.59830841E-01 -5.15673298E-01 -9.51495497E-01
  1.83831271E-01  9.87847327E-02  3.17178361E-12  3.68590375E-02  7.16755710E-02
 -3.99653012E-12 -3.19898902E-02 -1.35783615E-13 -4.88286068E-01 -1.04496231E-11
 -1.99501624E-01 -3.90092024E-13  3.90512190E-01  3.81010732E-11  1.17837969E+00
  8.22775021E-13 -8.55775699E-01 -3.50866678E-11 -1.39059518E-01 -6.11318732E-13
 -2.98581099E-02 -2.87205831E-15 -1.17779722E-14 -1.31984516E-01 -3.57208073E-13
 -3.49765735E-02  5.77017130E-01 -6.75095109E-02  1.55243564E-01 -3.96509282E-01
 -5.24191059E-01  8.25431791E-14 -3.49765735E-02  5.77017130E-01 -6.75095109E-02
  1.55243564E-01  3.96509282E-01 -5.24191059E-01  1.11029594E-13  1.01335038E-15
  1.95400219E-15  1.31199796E-16 -1.47726149E-15 -1.58287971E-14 -1.34884483E-14
 -1.30628376E-15 -6.64922303E-15 -7.59179153E-14  1.40834204E-14  1.67706409E-15
  2.68594123E-14  4.86519230E-14 -1.55255177E-14 -8.74908543E-17 -5.37399405E-15
 -1.30255322E-14 -4.93165477E-16  1.33803729E-01  7.90022622E-15 -2.68286495E-15
  1.40261362E-16 -1.77347057E-15  1.19861268E-14 -4.23686026E-15  2.53699799E-15
 -7.69844634E-15 -1.08059461E-14  6.85349612E-01  3.51244500E-16  1.04866674E-14
 -2.42363957E-15  3.03150609E-15  6.49862831E-15 -1.10832585E-14 -6.85349612E-01
  1.05566218E-01  2.11095315E-01 -4.55316993E-12 -2.69692595E-02 -1.60709541E-13
 -1.77311492E+00 -1.07659875E-11 -2.38362094E-01 -4.07019999E-13  4.54345123E+00
  4.13470770E-11 -1.07643500E+00  7.74034437E-13 -4.28582108E+00 -4.15095842E-11
  9.51868291E-01 -7.46906015E-13  1.92524438E-02 -2.67364965E-16 -4.87772348E-14
  5.86859644E-02 -8.02784964E-13  2.42243229E-02 -1.57461011E+00  1.71926210E+00
  2.66998628E-01  4.45562434E-01  1.71870503E-03  2.89741049E-13  2.42243229E-02
 -1.57461011E+00  1.71926210E+00  2.66998628E-01 -4.45562434E-01  1.71870504E-03
  2.92747963E-13  4.12510103E-14  8.20371025E-14 -9.72152936E-14  3.94939529E-15
  1.98834021E-02 -6.86254924E-13 -2.17416128E-13 -7.88448847E-14 -4.59544549E-02
  1.77646877E-12  8.10124282E-13 -3.00171640E-13  7.66744345E-01 -1.79297605E-12
 -8.53515558E-13  3.36702576E-13 -1.43691927E-01 -6.01938288E-15  4.03276981E-15
  1.60358827E-01  9.59780258E-15 -2.34591724E-14  1.80328379E-13 -7.63344626E-13
  3.52738087E-13  1.69753483E-12  1.44299458E-13 -6.37205301E-14 -7.65207441E-01
 -5.46797287E-14 -2.46016781E-13  5.98208793E-13 -1.14681548E-12 -9.18024319E-14
 -5.20554765E-14 -7.65207441E-01 -3.86023153E-14 -8.25323853E-14 -1.43817819E-02
  5.54622058E-15  2.74124647E-15  6.56557454E-13 -7.14090355E-02 -1.17968078E-13
  7.84774474E-15 -5.64598167E-13  1.14498257E+00  2.01793866E-13 -2.82435944E-14
  5.39170121E-13 -4.34729299E-01 -1.43182894E-13  1.89626943E-14 -7.71308556E-14
  3.32217748E-17 -1.93539065E-15 -2.24750829E-14 -3.30965134E-02  8.27457736E-02
 -7.73085383E-01  5.91063023E-01 -8.87738649E-03 -4.82985358E-01 -6.66773155E-01
  6.89083579E-15 -8.27457736E-02  7.73085383E-01 -5.91063023E-01  8.87738649E-03
 -4.82985358E-01  6.66773155E-01  7.22376346E-15 -8.29468530E-13 -1.57722115E-12
 -1.82059253E-01 -1.96655351E-12  1.07898045E-13  1.11275671E-11 -5.30320796E-01
 -1.83031868E-12  1.85298651E-13 -2.36343432E-11  9.11105661E-02  4.43484951E-12
 -7.07123375E-13  3.94174444E-11 -4.25799369E-01 -7.89401342E-12  6.09482203E-13
  2.98539488E-12 -1.29356529E-16 -3.84133865E-14 -6.62510657E-13 -2.12157569E-01
  5.78907241E-01 -7.20344610E-01  1.34965139E+00 -4.10292586E-01 -4.61461007E-01
  5.06030611E-01  7.24557763E-14 -5.78907241E-01  7.20344610E-01 -1.34965139E+00
  4.10292586E-01 -4.61461007E-01 -5.06030611E-01  7.21089603E-14  4.83130993E-02
  9.46776565E-02 -9.20582032E-13  1.54683142E-01  4.41086207E-14 -5.40477903E-01
 -6.42542584E-12  4.02574806E-01  6.43571891E-14 -4.72859685E-01 -9.86903440E-12
  6.23651744E-02 -2.62010665E-13 -9.34673235E-01  7.98579605E-12  3.02531900E-01
  2.34883579E-13 -2.66193297E-01 -2.23066998E-17 -1.52553207E-14  5.83209229E-02
 -2.45532680E-12  6.07016098E-01 -5.13883399E-01  1.12276304E+00 -1.75169667E-01
 -6.20807114E-01  3.78049059E-01  2.35143905E-14  6.07016098E-01 -5.13883399E-01
  1.12276304E+00 -1.75169667E-01  6.20807114E-01  3.78049059E-01  2.28678255E-14
  3.33557331E-02  7.82796549E-02 -6.51460947E-13 -3.36911297E-02 -5.00475451E-14
 -5.58658430E-01  7.39277113E-12  5.31550321E-01 -4.78498146E-14 -2.28620888E+00
  1.64210220E-11  1.02450325E+00  2.41764169E-13  2.29258277E+00 -1.52991324E-11
 -7.71108233E-01 -2.31942691E-13  2.69493004E-02 -7.17467191E-16  2.24420743E-14
 -5.79135320E-02 -4.43916740E-14 -9.37121607E-01  2.84162874E+00 -2.08828824E+00
  2.07825992E-01 -7.34540072E-01  5.34568119E-01 -1.64297948E-14 -9.37121607E-01
  2.84162874E+00 -2.08828824E+00  2.07825992E-01  7.34540072E-01  5.34568119E-01
 -1.70544007E-14  3.76328379E-13  8.64085912E-13  2.16662831E-02 -7.03652344E-13
 -9.04812081E-14 -7.48660026E-12 -7.71020268E-01  3.79362971E-12 -6.58355237E-14
 -1.01796291E-11 -9.95206200E-01  9.08499164E-12  3.84842300E-13  1.40387777E-11
  6.42636580E-01 -7.76202329E-12 -3.84483842E-13  1.35880846E-12  1.05435475E-15
  4.87607743E-14 -9.35685420E-13  2.20718061E-01 -9.44280163E-01  2.55436996E+00
 -1.68245658E+00  3.79196544E-01 -7.82594334E-01  5.98234879E-01 -2.07072361E-14
  9.44280163E-01 -2.55436996E+00  1.68245658E+00 -3.79196544E-01 -7.82594334E-01
 -5.98234879E-01 -1.90564360E-14 -1.24048235E-15 -2.55452583E-15  1.24277040E-14
  5.13687385E-16  2.71516032E-03  2.35577642E-14  3.02171101E-14 -6.46117744E-15
  1.77004640E-02 -9.03388435E-15  2.05414622E-15 -1.60179942E-14 -3.24381263E-01
  2.23981601E-15  4.43918293E-14  1.46667154E-14  5.55499080E-02 -5.56234843E-15
  1.24633807E-12  1.03107640E+00  1.19839109E-14 -3.54994228E-14  6.55315084E-14
 -2.05736251E-13  2.40097400E-13 -2.85312188E-13  3.31192205E-14 -2.65431718E-14
  3.65557098E-01 -2.47967021E-14  7.93427711E-14 -9.79796898E-14  2.09567273E-13
  2.25475016E-14  1.10441918E-14  3.65557098E-01  8.51620258E-17  1.38522111E-16
 -2.79719172E-16  5.56151168E-17  5.95285782E-15 -3.10684697E-16  8.79952502E-16
  7.82385456E-16 -1.09369449E-14 -7.08222226E-15  2.20371526E-15  3.62356531E-15
  4.36953813E-13  5.30260430E-15 -1.25823533E-15 -1.69695562E-15 -8.16328519E-14
  1.32862785E-15  1.05141488E+00 -1.25541888E-12  2.07652979E-15 -1.38902377E-15
  7.78856258E-17  1.82501227E-15 -1.23824538E-15 -5.93395258E-16 -6.52719122E-16
 -8.59929688E-16 -3.43292484E-01 -7.60255737E-16  8.36884007E-15 -4.99604095E-15
 -6.90592600E-17  3.73835444E-15  1.34150701E-15  3.43292484E-01  7.95781596E-04
  1.43883409E-03 -1.53705912E-13  2.89092056E-03 -5.64551724E-15  4.45947957E-02
 -1.02467911E-13  2.76523859E-02  2.72052126E-16 -6.88989184E-01  1.42062471E-13
  6.72552537E-01  1.56951429E-14  2.84403957E-01 -5.00273672E-13 -1.61900563E-01
 -1.46307991E-14  3.54224588E-01 -2.34337646E-15 -8.30261781E-15  1.01877109E+00
  3.79794649E-13 -3.78778844E-02  5.62604055E-01 -2.62778162E-01  1.96200394E-02
 -3.76675397E-01 -2.70937660E-01 -3.39468382E-15 -3.78778844E-02  5.62604055E-01
 -2.62778162E-01  1.96200394E-02  3.76675397E-01 -2.70937660E-01 -4.99687396E-15
 -1.99196181E-02 -3.70305194E-02 -6.92381006E-13 -3.15528552E-01 -1.51879623E-14
  1.88382532E-02 -2.48878014E-14 -9.53915391E-02  6.54020399E-15  2.80138302E+00
 -1.50878223E-12 -1.39563591E+00  2.53426041E-14 -1.81088397E+00  8.42404615E-14
  6.91597034E-01 -2.95396294E-14 -1.07159617E+00  8.74031670E-16 -5.08227109E-15
  4.01085704E-01  1.77290271E-12 -2.29063141E-01 -1.60463354E+00  9.82733266E-01
  4.77939691E-02  7.05176935E-01 -5.04582311E-01 -4.58198341E-15 -2.29063141E-01
 -1.60463354E+00  9.82733266E-01  4.77939690E-02 -7.05176935E-01 -5.04582311E-01
 -3.82945757E-15  5.10789739E-14  1.01407360E-13  4.33910551E-01 -8.57037476E-13
 -1.25820163E-13 -1.54741510E-12 -6.44761889E-02  3.79810198E-13  7.64679977E-14
  6.17176861E-12  1.33896257E+00 -8.49367929E-13  1.31583203E-13 -3.75343189E-12
 -6.28046333E-01 -2.06106791E-13 -1.71124743E-13 -1.18737470E-12 -9.46559441E-16
 -1.97760849E-14  7.24633246E-13 -1.18772577E+00 -3.45297823E-01 -8.10384631E-01